8
	Energy:     -17.2904255
S          8.35708       -2.80957        1.04888
S          5.88990       -2.02786        1.03450
S          3.34346       -1.22386        1.03707
S          0.84290       -0.43959        1.07200
S         -1.59541        0.32245        1.12283
S         -4.17653        1.12414        1.20743
S         -6.83561        1.95302        1.27625
S         -9.96314        2.94253        1.26678
