7
	Energy:     -28.7785183
S          2.94231       -5.01175        3.90786
S          2.89562       -3.00779        4.12751
S          1.09687       -2.40079        3.35771
S          1.50212       -1.47154        1.57684
S          0.98102       -2.75128        0.06366
S          2.72739       -3.50997       -0.69234
S          2.82007       -5.42169       -0.05786
