10
	Energy:     -39.8410365
S         -6.36046       -1.26153        0.51496
S         -5.45211        0.32973       -0.39374
S         -3.74574        0.70637        0.66295
S         -2.20829       -0.12730       -0.39732
S         -1.77245       -1.90401        0.51015
S         -5.90840       -2.90723       -0.60642
S         -4.38717       -3.87191        0.36217
S         -2.66458       -3.36425       -0.61000
Li        -3.81659       -1.65542        6.55994
Li        -4.03956       -1.34422       -6.42251
